============================== echo of input deck ==============================
scratch_dir /scratch/kuangy
memory total 16000 mb
echo
title "cluster"

charge 2
geometry units angstroms nocenter
 Sn   5.41774950     5.41774950     5.41774950
end

basis cartesian
#BASIS SET: (20s,16p,9d,2f) -> [9s,7p,4d,2f]
Sn    S
 4238589.38529473            0.0001263
 673793.42495089             0.0008800
 170097.07647820             0.0038795
  55609.70461290             0.0129455
  21415.49971415             0.0369050
   8977.66375890             0.0996500
   3782.07819166             0.2737153
   1562.92528277             0.6563110
Sn    S
    648.12338474            -0.5701632
    272.54080122            -0.4629734
Sn    S
     46.76879883            -0.7902759
     22.69311379            -0.2259347
Sn    S
      9.71239974            -0.6399296
      4.80098504            -0.3811111
Sn    S
      1.87390748             0.6068691
      0.82932636             0.4219649
Sn    S
     94.87261510             1.0000000
Sn    S
      0.20078915             1.0000000
Sn    S
      0.07538279             1.0000000
Sn    S
      0.0296000              1.0000000
Sn    P
  15934.47942881             0.0005873
   3949.03996243             0.0045455
   1382.89878270             0.0210093
    566.21188582             0.0755028
    244.15478655             0.2202092
    107.89717825             0.4237674
     48.96252198             0.4038944
Sn    P
     10.07938092             0.7252962
      4.75501791             0.3096567
Sn    P
      2.25355772             0.6755163
      1.01299742             0.3734322
      0.15319025            -0.0228824
Sn    P
     21.42982885             1.0000000
Sn    P
      0.39772444             1.0000000
Sn    P
      0.05502644             1.0000000
Sn    P
      0.03017248             1.0000000
Sn    D
    439.54036499             0.0085018
    130.83523828             0.0639522
     48.78644670             0.2353001
     20.01140691             0.4465600
      8.53464202             0.3913098
      3.38957135             0.0903839
Sn    D
      1.34061058             1.0000000
Sn    D
      0.47738533             1.0000000
Sn    D
      0.0453300              1.0000000
Sn    F
      1.4803000              1.0000000
Sn    F
      0.5110700              1.0000000
end

set embed logical true

dft
 iterations 300
 xc xpbe96 cpbe96
 #smear 0.001
end

task dft

================================================================================

 Output coordinates in angstroms (scale by  1.889725989 to convert to a.u.)

  No.       Tag          Charge          X              Y              Z
 ---- ---------------- ---------- -------------- -------------- --------------
    1 Sn                  50.0000     5.41774950     5.41774950     5.41774950

         Total DFT energy =    -6253.376939245047

                       DFT Final Molecular Orbital Analysis
                       ------------------------------------

 Vector   14  Occ=2.000000D+00  E=-1.958583D+01

 Vector   15  Occ=2.000000D+00  E=-5.938825D+00

 Vector   16  Occ=2.000000D+00  E=-4.281771D+00

 Vector   17  Occ=2.000000D+00  E=-4.281770D+00

 Vector   18  Occ=2.000000D+00  E=-4.281628D+00

 Vector   19  Occ=2.000000D+00  E=-1.329647D+00

 Vector   20  Occ=2.000000D+00  E=-1.328555D+00

 Vector   21  Occ=2.000000D+00  E=-1.328555D+00

 Vector   22  Occ=2.000000D+00  E=-1.322908D+00

 Vector   23  Occ=2.000000D+00  E=-1.322380D+00

 Vector   24  Occ=2.000000D+00  E=-9.280812D-01

 Vector   25  Occ=0.000000D+00  E=-5.967417D-01

 Vector   26  Occ=0.000000D+00  E=-5.967412D-01

 Vector   27  Occ=0.000000D+00  E=-5.962537D-01

 Vector   28  Occ=0.000000D+00  E=-3.143737D-01

 Vector   29  Occ=0.000000D+00  E=-2.481064D-01

 Vector   30  Occ=0.000000D+00  E=-2.478265D-01

 Vector   31  Occ=0.000000D+00  E=-2.478264D-01

 Vector   32  Occ=0.000000D+00  E=-2.426186D-01

 Vector   33  Occ=0.000000D+00  E=-2.424099D-01

 Vector   34  Occ=0.000000D+00  E=-2.286715D-01

 Vector   35  Occ=0.000000D+00  E=-2.282815D-01

 Vector   36  Occ=0.000000D+00  E=-2.282814D-01

 Vector   37  Occ=0.000000D+00  E=-1.558759D-01

 Vector   38  Occ=0.000000D+00  E=-2.084959D-02

 Vector   39  Occ=0.000000D+00  E=-2.084939D-02

 Vector   40  Occ=0.000000D+00  E=-2.025943D-02

 Vector   41  Occ=0.000000D+00  E= 1.125777D-02

 Vector   42  Occ=0.000000D+00  E= 4.639547D-01

 Vector   43  Occ=0.000000D+00  E= 4.875909D-01

 Vector   44  Occ=0.000000D+00  E= 4.875912D-01

 Vector   45  Occ=0.000000D+00  E= 4.882759D-01

 Vector   46  Occ=0.000000D+00  E= 4.965603D-01

 Vector   47  Occ=0.000000D+00  E= 4.965603D-01

 Vector   48  Occ=0.000000D+00  E= 4.975930D-01

 Vector   49  Occ=0.000000D+00  E= 5.923551D-01

 Total times  cpu:      260.3s     wall:      260.9s
